 6
  Energy -997.437195311596  Dipole 1.72
 C    0.00000000  -0.00124100   0.43207000
 C    0.00000000  -0.00064500   1.75308400
 Cl  -0.00000100   1.44058700  -0.50488200
 Cl   0.00000100  -1.44390700  -0.50358900
 H   -0.00000000  -0.93453400   2.29908600
 H    0.00000000   0.93374100   2.29823100
