 10
  Energy -264.061686178361  Dipole 5.57
 C   -0.00000000   0.68701100   1.16955600
 C    0.00000000  -0.68741500   1.17006100
 C    0.00000000   1.31571700  -0.07043800
 C    0.00000000  -1.31703400  -0.06947200
 N   -0.00000000   0.65960500  -1.22240000
 N   -0.00000000  -0.66176800  -1.22191400
 H   -0.00000000   1.26575500   2.08506700
 H    0.00000000  -1.26549500   2.08599000
 H    0.00000000   2.39731800  -0.15310000
 H   -0.00000000  -2.39869400  -0.15135000
