 10
  Energy -264.087603975857  Dipole 0.00
 N   -0.00000000  -0.00004900   1.39540600
 N    0.00000000  -0.00015100  -1.39540600
 C   -0.00000000   1.12841500   0.69400900
 C   -0.00000000  -1.12856300   0.69409200
 C   -0.00000000   1.12836500  -0.69409100
 C   -0.00000000  -1.12861400  -0.69400900
 H    0.00000000   2.06148200   1.24876600
 H    0.00000000  -2.06159100   1.24891600
 H    0.00000000   2.06139000  -1.24891900
 H   -0.00000000  -2.06168300  -1.24876400
