 10
  Energy -155.827330800875  Dipole 0.00
 C    0.00018700   0.00083300   0.60201000
 C   -0.00018600   0.00083300  -0.60201000
 C    0.00004200   0.00021800   2.05479600
 C   -0.00004200   0.00021800  -2.05479600
 H   -0.00000800   1.01984200   2.44816200
 H   -0.88321000  -0.50995700   2.44724800
 H    0.88321300  -0.50993700   2.44746000
 H    0.00000800   1.01984200  -2.44816200
 H    0.88321000  -0.50995700  -2.44724800
 H   -0.88321300  -0.50993700  -2.44746000
