 9
  Energy -577.260742460314  Dipole 2.12
 C   -1.01797900   1.31058800  -0.00000000
 C    0.00607300   0.47214100   0.00000000
 C    1.44822400   0.82734800   0.00000000
 Cl  -0.29353900  -1.24952000   0.00000200
 H   -2.04431700   0.96778500  -0.00000000
 H   -0.82876700   2.37770000  -0.00000100
 H    1.56482300   1.91154200   0.00000200
 H    1.94624200   0.41420600   0.88090200
 H    1.94624100   0.41420900  -0.88090400
