 11
  Energy -578.494025323764  Dipole 2.91
 Cl  -0.88200100   1.00476100  -0.00007500
 C    0.57681500  -0.07835700  -0.00002600
 H    1.41696900   0.61664600  -0.00006000
 C    0.57519600  -0.90557200   1.26210200
 C    0.57519100  -0.90569100  -1.26207600
 H    1.47619800  -1.52499500   1.28251500
 H    0.56892800  -0.27467900   2.15151100
 H   -0.29570200  -1.56399600   1.29055900
 H    1.47619700  -1.52511000  -1.28243900
 H    0.56891100  -0.27488300  -2.15154500
 H   -0.29570200  -1.56412400  -1.29046400
