 9
  Energy -631.370022482455  Dipole 4.57
 C    0.10293200   1.74169700  -0.18122700
 C   -0.01955000   0.36418300   0.43691800
 C   -1.27859500  -0.28047000   0.09171600
 N   -2.28780100  -0.76327800  -0.17091500
 Cl   1.32145500  -0.70610800  -0.08912800
 H    1.04866200   2.18852700   0.12312600
 H    0.06251500   1.68094300  -1.26859700
 H   -0.71817100   2.36855400   0.17229900
 H    0.04755400   0.41195100   1.52480700
