 12
  Energy -211.190305280335  Dipole 5.15
 N   -0.39411500  -2.15655600   0.00445600
 C   -0.02481400  -1.06676200  -0.00066400
 C    0.43697100   0.31685200  -0.00070300
 C   -0.02820300   1.02790200   1.26918600
 C   -0.02788000   1.02932000  -1.26988800
 H    1.53148700   0.26822900  -0.00066600
 H    0.32518300   0.51474300   2.16436200
 H    0.36527900   2.04558700   1.27209300
 H   -1.11826000   1.07800600   1.30321100
 H    0.32568800   0.51716500  -2.16557500
 H    0.36559300   2.04700300  -1.27167500
 H   -1.11793200   1.07951200  -1.30413600
