 15
  Energy -196.348941588078  Dipole 0.31
 C   -1.49064600   0.49255600   0.00000000
 C    0.00507400   0.44799600   0.00000000
 C    0.73363500  -0.67079200   0.00000000
 C    0.25510400  -2.08353600  -0.00000000
 C    0.66406700   1.79346500   0.00000000
 H   -1.95294800  -0.49357100   0.00000200
 H   -1.85460700   1.03896600   0.87690000
 H   -1.85460700   1.03896200  -0.87690200
 H    1.81653300  -0.55193000   0.00000000
 H   -0.83177500  -2.16729800   0.00000000
 H    0.63220300  -2.62076800  -0.87670400
 H    0.63220400  -2.62076900   0.87670200
 H    1.75229900   1.71106200   0.00000000
 H    0.36173100   2.37582800  -0.87747600
 H    0.36173100   2.37582800   0.87747700
