 9
  Energy -229.779067644958  Dipole 3.95
 C    1.48281100   0.73886700   0.00001000
 C    0.00850600   0.49781300   0.00008200
 O   -0.82081300   1.38107200  -0.00003800
 C   -0.40280400  -0.89518300   0.00003200
 C   -0.72948100  -2.05218600  -0.00001100
 H    1.68796000   1.80798700  -0.00004700
 H    1.92993100   0.26560000   0.87860100
 H    1.92985600   0.26552200  -0.87857900
 H   -1.03496600  -3.07549400  -0.00004900
