 9
  Energy -577.255595286120  Dipole 2.54
 C    2.21847800  -0.20585200  -0.30610500
 C    1.13687800  -0.11557500   0.45593100
 C   -0.01843600   0.75010900   0.12006500
 Cl  -1.51093500  -0.23990300  -0.11271600
 H    3.05914900  -0.82808200  -0.02168400
 H    2.29846200   0.34567300  -1.23791500
 H    1.06453000  -0.67751600   1.38326800
 H   -0.25982500   1.44351500   0.92507100
 H    0.13669900   1.29863200  -0.80691400
