 10
  Energy -192.995210020001  Dipole 3.99
 O    0.00029100  -0.00109600   1.39246100
 C    0.00019800  -0.00025000   0.18009600
 C   -0.00008100   1.27611200  -0.60990300
 C    0.00044300  -1.27550100  -0.61169400
 H   -0.00020400   2.13817700   0.05475300
 H    0.87753300   1.30701500  -1.26173800
 H   -0.87776300   1.30669700  -1.26165700
 H    0.00042300  -2.13850200   0.05174800
 H   -0.87706600  -1.30542200  -1.26371100
 H    0.87822700  -1.30523100  -1.26335700
