 7
  Energy -613.191766175224  Dipole 3.52
 C    1.47995900   0.72905200   0.00000800
 C    0.00785800   0.53795600   0.00006900
 O   -0.83946300   1.36152000  -0.00000700
 Cl  -0.45009100  -1.20269900  -0.00006200
 H    1.70740600   1.79360200  -0.00003700
 H    1.90568900   0.24381600   0.88035200
 H    1.90564100   0.24375200  -0.88032300
