 7
  Energy -153.706727714562  Dipole 3.63
 O    1.19891700   0.37440100  -0.00008300
 C   -0.00516400   0.44573400   0.00019400
 C   -0.92598200  -0.72292800   0.00003200
 H   -0.50041700   1.43827300  -0.00013300
 H   -0.37630500  -1.66321800  -0.00002200
 H   -1.57906500  -0.66220600   0.87663600
 H   -1.57898200  -0.66205700  -0.87662600
