 6
  Energy -132.639266303148  Dipole 4.97
 C   -0.00000100  -0.00026400  -1.18368300
 C   -0.00000100  -0.00006900   0.26272500
 N    0.00000200   0.00006900   1.41270300
 H    0.00000000   1.02609000  -1.55358800
 H    0.88884800  -0.51341400  -1.55357600
 H   -0.88884800  -0.51341300  -1.55358100
