 16
  Energy -346.465854527833  Dipole 1.72
 C   -0.00671600   0.53497200   0.00000000
 C   -1.37111400   0.24204800   0.00000000
 C   -1.79702200  -1.07307600  -0.00000000
 C   -0.87487600  -2.11530200   0.00000000
 C    0.47796200  -1.81852400   0.00000000
 C    0.92313000  -0.50088800   0.00000100
 O    0.31943700   1.84797200  -0.00000000
 C    1.69129000   2.18580000  -0.00000000
 H   -2.07975300   1.06235800  -0.00000000
 H   -2.85992600  -1.28757000  -0.00000100
 H   -1.21127300  -3.14517300  -0.00000100
 H    1.20919600  -2.61931700   0.00000100
 H    1.98518000  -0.29574400   0.00000100
 H    1.73647600   3.27314900   0.00000000
 H    2.19550300   1.80164500   0.89207400
 H    2.19550400   1.80164600  -0.89207400
