 12
  Energy -232.030014047254  Dipole 0.00
 C    0.00020500   1.38816200  -0.00000000
 C    1.20254900   0.69298100   0.00000000
 C   -1.20316600   0.69483500   0.00000000
 C    1.20150500  -0.69581900   0.00000000
 C   -1.20421000  -0.69399700  -0.00000000
 C   -0.00189600  -1.38916100  -0.00000000
 H    0.00111300   2.47249100  -0.00000000
 H    2.14192200   1.23455800   0.00000000
 H   -2.14178600   1.23771500   0.00000000
 H    2.14008000  -1.23877600   0.00000000
 H   -2.14362700  -1.23549700   0.00000000
 H   -0.00269000  -2.47349100  -0.00000000
