 10
  Energy -155.805069936781  Dipole 0.88
 C    0.73941800  -0.00066100  -0.25314300
 C   -0.73876200  -0.00065700  -0.25326400
 C    0.00027800   1.12814000   0.38046400
 C    0.00027300  -1.13000800   0.37948100
 H    1.41461500  -0.00029800  -1.09347600
 H   -1.41383900  -0.00029200  -1.09369400
 H    0.00032500   2.07541100  -0.15065300
 H    0.00019100   1.21409800   1.46790500
 H    0.00031300  -2.07681500  -0.15246200
 H    0.00018500  -1.21691800   1.46684600
