 12
  Energy -306.256138713604  Dipole 5.99
 C    0.87685800   0.00073900   0.00580000
 C   -0.02465500   1.19830000   0.16252400
 C   -1.39304600   0.66189900  -0.22437900
 C   -1.26041300  -0.81362800   0.12406500
 O    0.13698200  -1.11938800  -0.04077600
 O    2.07518500  -0.03174700  -0.06488600
 H    0.01722000   1.49916700   1.21462600
 H    0.33815500   2.03060700  -0.43797900
 H   -2.21697900   1.13484300   0.30820900
 H   -1.55913700   0.78280000  -1.29660700
 H   -1.52818300  -1.01863700   1.16364500
 H   -1.82098700  -1.47795600  -0.53124400
