 12
  Energy -616.539762387084  Dipole 2.64
 C    0.00617200   0.77356300   0.00009100
 C    0.80898700  -0.28524900   0.00001100
 C    2.29007600  -0.07080200   0.00002600
 C    0.34816700  -1.70211200  -0.00009600
 Cl  -1.72534400   0.69204000   0.00008400
 H    0.37164100   1.79191900   0.00016900
 H    2.55127200   0.98812600   0.00011200
 H    2.74168600  -0.54152100   0.87905000
 H    2.74168400  -0.54137700  -0.87907500
 H   -0.73710900  -1.78860600  -0.00008500
 H    0.74236900  -2.22341900  -0.87810800
 H    0.74239800  -2.22356000   0.87781900
