 12
  Energy -691.496699979187  Dipole 2.19
 Cl  -0.00000000  -0.00000100   2.22983700
 C   -0.00000000   0.00000000   0.49590200
 C    0.00000000   1.20926100  -0.18162000
 C   -0.00000000  -1.20926100  -0.18162000
 C   -0.00000000   1.20102800  -1.56913400
 C   -0.00000000  -1.20102800  -1.56913300
 C   -0.00000000  -0.00000000  -2.26513500
 H    0.00000000   2.14084600   0.37037900
 H    0.00000000  -2.14084500   0.37038000
 H   -0.00000000   2.14283400  -2.10558100
 H    0.00000000  -2.14283500  -2.10558000
 H   -0.00000000  -0.00000000  -3.34869400
