 5
  Energy -1418.847971683059  Dipole 1.43
 C    0.00000000   0.00039800   0.45529000
 H    0.00000000  -0.00008800   1.54001500
 Cl  -0.00000000   1.67587300  -0.08740500
 Cl   1.45009000  -0.83809200  -0.08745000
 Cl  -1.45009000  -0.83809200  -0.08745000
