 8
  Energy -539.214303426241  Dipole 2.70
 Cl  -0.80355500  -0.78608000   0.00079100
 C    0.00422900   0.82116700   0.00131400
 C    1.50282600   0.67925000   0.00047900
 H   -0.35949800   1.33597000   0.88880300
 H   -0.36038900   1.33699900  -0.88521200
 H    1.95441300   1.67524300   0.00083500
 H    1.84843100   0.14470900   0.88672400
 H    1.84754200   0.14574300  -0.88673500
