 12
  Energy -157.060449408867  Dipole 0.00
 C    0.00000000   1.07362000   0.13275200
 C    1.07362000   0.00000000  -0.13275200
 C    0.00000000  -1.07362000   0.13275200
 C   -1.07362000   0.00000000  -0.13275200
 H    0.00000000   1.38254300   1.18086400
 H    1.38254300  -0.00000000  -1.18086500
 H    0.00000000  -1.38254300   1.18086500
 H   -1.38254300  -0.00000000  -1.18086400
 H   -0.00000000   1.96609500  -0.49563100
 H    1.96609500  -0.00000000   0.49563100
 H   -0.00000000  -1.96609500  -0.49563100
 H   -1.96609500  -0.00000000   0.49563100
