 9
  Energy -117.782401244038  Dipole 0.00
 C   -0.00053500   0.86453700   0.00093000
 C    0.74805300  -0.43270100   0.00068000
 C   -0.74952900  -0.43257100   0.00012200
 H   -0.00099400   1.45060100   0.91179100
 H   -0.00013100   1.45137000  -0.90943400
 H    1.25605700  -0.72649100   0.91110700
 H    1.25633300  -0.72547200  -0.90993200
 H   -1.25793200  -0.72590400   0.91047000
 H   -1.25732300  -0.72536800  -0.91073400
