 14
  Energy -270.344899050089  Dipole 4.08
 O    0.00003100  -0.00000200   2.11622600
 C   -0.00006600  -0.00000100   0.90843600
 C    0.00120300   1.22887200   0.02509700
 C   -0.00120800  -1.22887100   0.02509500
 C    0.30460200   0.70327100  -1.37354300
 C   -0.30461200  -0.70327600  -1.37354500
 H   -1.01191300   1.64752400   0.07404400
 H    0.68484500   1.98834900   0.40681700
 H    1.01193500  -1.64745800   0.07405900
 H   -0.68480900  -1.98839100   0.40679800
 H   -0.09584600   1.33734400  -2.16519300
 H    1.38730300   0.63619900  -1.51754700
 H    0.09585000  -1.33734500  -2.16519200
 H   -1.38731300  -0.63621600  -1.51755600
