 12
  Energy -269.124714194035  Dipole 5.27
 O    0.07150200   2.08397700   0.00000500
 C    0.00543900   0.87152400  -0.00000500
 C   -1.21503800   0.05613000  -0.00000000
 C   -0.89228900  -1.24062700  -0.00000100
 C    0.58304900  -1.48068900  -0.00000000
 C    1.18854600  -0.07951700  -0.00000100
 H   -2.21007200   0.48151400   0.00000200
 H   -1.60530600  -2.05782200  -0.00000000
 H    0.87543400  -2.06965900   0.87486900
 H    0.87543600  -2.06966100  -0.87486700
 H    1.80614900   0.12141700   0.87827100
 H    1.80615100   0.12141400  -0.87827200
