 15
  Energy -196.367350731834  Dipole 0.03
 C    0.00008300   0.00033800   1.29451600
 C    0.00352800   1.23175200   0.36539300
 C   -0.00446100  -1.23126200   0.36565700
 C   -0.33122400   0.68643800  -1.02197900
 C    0.32938800  -0.68628900  -1.02205300
 H    0.87572400   0.00319500   1.94720700
 H   -0.87470400  -0.00241200   1.94834700
 H   -0.69093300   2.00804800   0.69350600
 H    0.99976500   1.68335000   0.34598500
 H    0.68999900  -2.00771100   0.69341200
 H   -1.00085500  -1.68255800   0.34709600
 H   -1.41551700   0.57038900  -1.13055600
 H    0.01128500   1.33612000  -1.83075900
 H    1.41361300  -0.57025800  -1.13132200
 H   -0.01368900  -1.33614200  -1.83045200
