 10
  Energy -155.824876725688  Dipole 0.24
 C    0.00000000   0.66782200   0.80405200
 C   -0.00000000  -0.66773100   0.80412100
 C    0.00000000   0.77943500  -0.70043300
 C   -0.00000000  -0.77950200  -0.70035000
 H   -0.00000000   1.41504600   1.59033800
 H   -0.00000000  -1.41483700   1.59051800
 H   -0.88818400   1.23831700  -1.14337800
 H    0.88818400   1.23831600  -1.14337800
 H    0.88818300  -1.23843300  -1.14324500
 H   -0.88818300  -1.23843200  -1.14324500
