 18
  Energy -235.651891389913  Dipole 0.00
 C   -1.25796400   0.72626000   0.22993600
 C   -0.00052600   1.45267300  -0.22904700
 C   -0.00001500  -1.45244400   0.22981200
 C    1.25742300  -0.72602900  -0.22915900
 C    1.25755300   0.72648100   0.22851000
 C   -1.25810100  -0.72625100  -0.22773000
 H   -1.31028300   0.75732400   1.32582100
 H   -0.00118200   1.51318100  -1.32498100
 H    0.00061400  -1.51299100   1.32574600
 H    1.30972600  -0.75710000  -1.32504400
 H    1.31109900   0.75755300   1.32433300
 H   -1.31167500  -0.75732400  -1.32355300
 H   -2.15043900   1.24094900  -0.13920100
 H   -0.00042700   2.48291200   0.14011800
 H   -0.00014300  -2.48268800  -0.13934200
 H    2.14988200  -1.24072500   0.14000200
 H    2.14950100   1.24131400  -0.14169900
 H   -2.15004200  -1.24109500   0.14247800
