 15
  Energy -308.402133164698  Dipole 5.44
 O   -2.34564400  -0.00206200  -0.03885800
 C   -1.12878500   0.01962000   0.03354500
 C   -0.37984800   1.27707000  -0.05253400
 C    0.95554300   1.30842000   0.01999200
 C    1.80265900   0.08706600   0.11609700
 C    1.06137000  -1.15527700  -0.35020900
 C   -0.32296000  -1.23028500   0.27476600
 H   -0.96645500   2.18554100  -0.14006300
 H    1.46349400   2.26946300   0.01465700
 H    2.72125700   0.23474700  -0.45880800
 H    2.12409900  -0.02664400   1.16150100
 H    0.96126700  -1.11902200  -1.44019000
 H    1.63337000  -2.05462200  -0.11202600
 H   -0.89613800  -2.08725200  -0.08281900
 H   -0.23422800  -1.33376500   1.36495000
