 16
  Energy -234.424351327784  Dipole 0.48
 C    0.00942600   0.66532000   1.29061300
 C   -0.00942600  -0.66532000   1.29061300
 C   -0.00294300   1.49035500   0.04075600
 C    0.00294300  -1.49035500   0.04075600
 C   -0.37338300   0.66287000  -1.18283700
 C    0.37338300  -0.66287000  -1.18283700
 H    0.02804000   1.19754200   2.23843400
 H   -0.02803900  -1.19754200   2.23843400
 H   -0.70097300   2.32576200   0.16160800
 H    0.70097200  -2.32576200   0.16160700
 H    0.98370100   1.95243800  -0.09961700
 H   -0.98370200  -1.95243700  -0.09961700
 H   -1.45160400   0.46478200  -1.16980200
 H    1.45160400  -0.46478200  -1.16980100
 H   -0.16618400   1.22539100  -2.09715600
 H    0.16618500  -1.22539100  -2.09715600
