 8
  Energy -191.726365335388  Dipole 3.81
 O    0.00000000   0.00000000   1.58487400
 C   -0.00000000  -0.00000000   0.38790700
 C   -0.00000000   0.77997600  -0.84168800
 C   -0.00000000  -0.77997600  -0.84168800
 H    0.91562400   1.28220500  -1.13785100
 H   -0.91562400   1.28220500  -1.13785200
 H   -0.91562400  -1.28220500  -1.13785200
 H    0.91562400  -1.28220500  -1.13785100
