 17
  Energy -309.624560955667  Dipole 4.36
 O   -1.12375300   2.00222900   0.00059700
 C   -0.30594700   1.10628000   0.00030100
 C    0.23198000   0.50481600   1.26979500
 C    0.23085100   0.50462100  -1.26958000
 C    0.11182100  -1.02094300   1.25383100
 C    0.11071500  -1.02113800  -1.25328500
 C    0.73580000  -1.61375000   0.00004500
 H    1.29342900   0.77701800   1.33229800
 H   -0.28333300   0.94938800   2.12228300
 H    1.29224400   0.77681100  -1.33306300
 H   -0.28521400   0.94906600  -2.12168000
 H    0.58073100  -1.43033400   2.15200300
 H   -0.94806600  -1.29586900   1.29679900
 H    0.57884400  -1.43066000  -2.15180400
 H   -0.94920400  -1.29608300  -1.29527900
 H    1.81395400  -1.41291500  -0.00044300
 H    0.61514800  -2.70053700   0.00018300
