 11
  Energy -231.036868237787  Dipole 3.86
 O    0.00000500   0.00078000   1.86135600
 C    0.00000100   0.00061400   0.66188000
 C   -0.00000100   1.10108600  -0.38518100
 C   -0.00000100  -1.10014800  -0.38487500
 C    0.00000100   0.00031700  -1.47390400
 H   -0.88659900   1.73833200  -0.34298700
 H    0.88659300   1.73833600  -0.34298800
 H   -0.88659800  -1.73738200  -0.34250100
 H    0.88659300  -1.73738600  -0.34250100
 H   -0.88637700   0.00022700  -2.10615100
 H    0.88638000   0.00022700  -2.10614800
