 13
  Energy -195.141675111727  Dipole 0.34
 C   -0.26911100  -1.19587700  -0.00013900
 H    0.25488100  -2.15284300   0.00079400
 H   -1.34079800  -1.41086300  -0.00019200
 C    0.07061900  -0.32824600   1.22407700
 C    0.07115700  -0.33031800  -1.22567400
 C    0.06545900   1.06458800   0.66280900
 C    0.06573800   1.06346200  -0.66677400
 H   -0.64177700  -0.46137800   2.04311700
 H    1.06038900  -0.56753000   1.63409600
 H   -0.64084300  -0.46488500  -2.04482300
 H    1.06112100  -0.57028600  -1.63483200
 H    0.10381600   1.95267900   1.28432700
 H    0.10435000   1.95049600  -1.28978600
