 10
  Energy -1223.954751950655  Dipole 5.64
 C    1.47117300   0.64134100   0.00013100
 C    0.00471000   0.48249300   0.00001800
 C   -0.26988500  -0.82220300   0.00002900
 C    1.00422700  -1.58972700  -0.00000400
 O    2.02014500  -0.59441700   0.00000100
 O    2.12406500   1.64423200  -0.00008300
 Cl  -1.04826800   1.80156000  -0.00004300
 Cl  -1.77264300  -1.58156400  -0.00001100
 H    1.10675400  -2.21437700   0.89137300
 H    1.10672300  -2.21433700  -0.89141200
