 5
  Energy -959.394239749503  Dipole 2.12
 C   -0.00000000  -0.00000000   0.76706200
 Cl   0.00000000   1.46706600  -0.21725700
 Cl   0.00000000  -1.46706600  -0.21725700
 H   -0.89931200   0.00000000   1.37422600
 H    0.89931200   0.00000000   1.37422600
