 10
  Energy -552.957828865004  Dipole 5.40
 S    0.26394900   0.39004500   0.00000000
 O   -1.08101600   1.04397100  -0.00000100
 C    0.25579200  -0.79370600   1.34215100
 C    0.25579300  -0.79370600  -1.34215100
 H    1.16818100  -1.39053600   1.30119800
 H    0.22589800  -0.22334000   2.27049600
 H   -0.63133900  -1.42292600   1.25152900
 H    1.16818200  -1.39053500  -1.30119800
 H    0.22589700  -0.22334000  -2.27049600
 H   -0.63133900  -1.42292600  -1.25152800
