 12
  Energy -248.308973975687  Dipole 5.39
 O    0.21998700  -1.93284400   0.00037900
 C    0.69518900  -0.80746900  -0.00041000
 N   -0.00118200   0.33850900  -0.00019700
 C   -1.44297300   0.33563700  -0.00004400
 C    0.65801200   1.61950300  -0.00004200
 H    1.78477000  -0.63402400   0.00035500
 H   -1.79187200  -0.69460600  -0.00016400
 H   -1.82342800   0.84917900   0.88756300
 H   -1.82360400   0.84944100  -0.88742200
 H    1.73859900   1.47605100  -0.00015400
 H    0.37967800   2.19594300  -0.88720600
 H    0.37982600   2.19567700   0.88734400
