 20
  Energy -365.878334477876  Dipole 2.65
 N   -0.16521200   1.56085000  -0.00014500
 C   -0.07032300   0.18986700  -0.00002900
 C   -0.02366600  -0.54019600   1.20220200
 C   -0.02404400  -0.54042400  -1.20213700
 C    0.03417900  -1.92386900   1.19225200
 C    0.03380900  -1.92409600  -1.19194500
 C    0.05973300  -2.63508400   0.00021700
 C    0.03478000   2.27944800  -1.23386100
 C    0.03514200   2.27968000   1.23337800
 H   -0.03328400  -0.02564300   2.15331100
 H   -0.03396700  -0.02604500  -2.15333700
 H    0.06556300  -2.45199200   2.13942300
 H    0.06489300  -2.45238600  -2.13903200
 H    0.10751800  -3.71733700   0.00031200
 H   -0.10842200   3.34292000  -1.05082100
 H   -0.10814100   3.34311500   1.05018600
 H    1.04044400   2.13269300  -1.65261300
 H    1.04093800   2.13302500   1.65184900
 H   -0.69277000   1.97356300  -1.98998100
 H   -0.69216900   1.97391200   1.98977300
