 15
  Energy -287.589382346302  Dipole 5.27
 O    1.06736800  -1.46538400   0.00049300
 C    0.71944700  -0.28691800   0.00072800
 N   -0.58357000   0.07426300   0.00022500
 C   -1.61495500  -0.93570900   0.00024000
 C   -1.06340100   1.43411500   0.00011700
 C    1.75269400   0.81120600   0.00015300
 H   -1.15208200  -1.91840700   0.00003500
 H   -2.24731300  -0.83069200   0.88721700
 H   -2.24755800  -0.83039800  -0.88652000
 H   -0.24329200   2.14492400  -0.00025200
 H   -1.68088900   1.61647400  -0.88537100
 H   -1.68041800   1.61682300   0.88586900
 H    2.73373400   0.34255200  -0.00007700
 H    1.66033700   1.44742700  -0.88261700
 H    1.66089700   1.44772300   0.88275800
