 12
  Energy -331.212991103519  Dipole 1.90
 F    0.00000000  -0.00097000   2.26535700
 C   -0.00000000  -0.00086100   0.92031100
 C   -0.00000000   1.21058400   0.25710900
 C   -0.00000000  -1.21219900   0.25690700
 C    0.00000000   1.20116800  -1.13113600
 C    0.00000000  -1.20254800  -1.13133400
 C    0.00000000  -0.00063100  -1.82683100
 H    0.00000000   2.13510500   0.82164800
 H    0.00000100  -2.13681200   0.82129500
 H   -0.00000000   2.14192700  -1.66933700
 H    0.00000000  -2.14321100  -1.66970400
 H    0.00000100  -0.00055200  -2.91028500
