 9
  Energy -229.828567493404  Dipole 0.79
 O   -0.00000100   0.00121200   1.15395300
 C    0.00000000   1.09001500   0.34891800
 C   -0.00000000  -1.08875100   0.35047900
 C    0.00000000   0.71444800  -0.95172600
 C    0.00000000  -0.71504800  -0.95070400
 H    0.00000100   2.04699300   0.84473800
 H   -0.00000000  -2.04502700   0.84765400
 H   -0.00000000   1.37093000  -1.80764300
 H   -0.00000000  -1.37277300  -1.80566800
