 11
  Energy -343.073275858048  Dipole 4.83
 O    1.23980600  -0.26612600   0.00000000
 C   -0.00631100   0.28714800  -0.00000400
 C   -0.94958700  -0.70240200  -0.00000300
 C   -0.24275000  -1.92652500  -0.00000100
 C    1.07944700  -1.59591300   0.00000300
 C   -0.08092600   1.72818000   0.00000100
 O   -1.12162900   2.35318100   0.00001700
 H   -2.01770200  -0.55142900  -0.00000500
 H   -0.65205200  -2.92421300  -0.00000100
 H    1.98262600  -2.18548900   0.00000900
 H    0.90108000   2.23758900  -0.00001600
