 16
  Energy -363.498653952225  Dipole 2.96
 N   -1.08713700   1.54538400  -0.00000000
 C   -2.23469700   0.79854300  -0.00000000
 C   -1.91924400  -0.53071200   0.00000000
 C   -0.49188400  -0.61741100   0.00000000
 C   -0.00243300   0.71218600   0.00000000
 C    1.35893200   1.00368100   0.00000000
 C    2.23910100  -0.06175400  -0.00000000
 C    1.77710400  -1.38749400  -0.00000000
 C    0.42605100  -1.67376200   0.00000000
 H   -1.05025800   2.54979900   0.00000000
 H   -3.19992100   1.28142900  -0.00000000
 H   -2.62244700  -1.34919200   0.00000000
 H    1.71551700   2.02762000   0.00000000
 H    3.30612500   0.12963200  -0.00000000
 H    2.49701800  -2.19811100  -0.00000000
 H    0.08017000  -2.70183600   0.00000000
