 12
  Energy -157.071404520552  Dipole 0.81
 C   -0.00000000   0.00000000   0.12323500
 C    0.00000000   0.00000000   1.45435200
 C   -0.00000000   1.26614500  -0.67349900
 C   -0.00000000  -1.26614500  -0.67349900
 H    0.00000200  -0.92680900   2.01881900
 H    0.00000100   0.92680900   2.01881900
 H   -0.00000200   2.14885500  -0.03273900
 H    0.87722500   1.30923700  -1.32768600
 H   -0.87722500   1.30923600  -1.32768900
 H   -0.00000200  -2.14885500  -0.03273900
 H   -0.87722400  -1.30923600  -1.32768900
 H    0.87722600  -1.30923800  -1.32768600
