 8
  Energy -245.837871594131  Dipole 3.82
 C   -0.00215100   1.12120700   0.00000000
 C    1.12117400   0.36772500   0.00000000
 C    0.61751300  -0.95493900  -0.00000000
 N   -0.68586000  -0.97924700  -0.00000100
 O   -1.08345700   0.33824300   0.00000000
 H   -0.18529900   2.18472500   0.00000000
 H    2.14609800   0.69787400   0.00000000
 H    1.16198100  -1.88858600  -0.00000000
