 11
  Energy -829.868420815079  Dipole 2.94
 Si   0.56722000  -0.04461900  -0.00010700
 Cl  -1.14918300   1.14609000   0.00042500
 H    1.70214100   0.91415600   0.00001900
 C    0.55778700  -1.06364900   1.55024800
 C    0.55744100  -1.06282000  -1.55100200
 H   -0.31201300  -1.72443700   1.57028400
 H    1.46087300  -1.67975600   1.58978800
 H    0.53405100  -0.42687600   2.43677300
 H   -0.31233700  -1.72362900  -1.57117800
 H    1.46054300  -1.67887400  -1.59106800
 H    0.53347700  -0.42558600  -2.43718300
