 6
  Energy -115.634951522374  Dipole 2.07
 C   -0.05038400   0.66190500   0.00000000
 O   -0.04492100  -0.75251200   0.00000000
 H   -1.09299600   0.98164800  -0.00000000
 H    0.43702400   1.07488500   0.89042400
 H    0.43702400   1.07488400  -0.89042400
 H    0.86925200  -1.04881100  -0.00000000
