 11
  Energy -268.177224939659  Dipole 2.45
 O   -1.16709900   0.75995400   0.00001300
 C    0.00931400   0.49111500  -0.00046200
 C    1.12671900   1.48356800  -0.00000800
 O    0.47062500  -0.76172300  -0.00020500
 C   -0.51855900  -1.79110500   0.00004600
 H    0.72425200   2.49326800   0.00032000
 H    1.75390700   1.33046500   0.88033200
 H    1.75402800   1.33107900  -0.88036200
 H    0.03068600  -2.72949900   0.00023600
 H   -1.14541400  -1.71786900   0.88934800
 H   -1.14545800  -1.71825200  -0.88925700
