 11
  Energy -608.062799211423  Dipole 1.90
 N    1.23432800   0.34217200  -0.00001400
 C    1.11265000  -0.95029000   0.00013400
 S   -0.50078100  -1.52100800  -0.00049100
 C   -1.05218700   0.09396400   0.00011000
 C    0.00572400   0.95516800  -0.00005100
 C   -0.07351100   2.44141700  -0.00003500
 H    1.94768000  -1.63874200   0.00020400
 H   -2.10512400   0.33083600   0.00023200
 H   -1.10970600   2.77871000   0.00003000
 H    0.42751400   2.85137600   0.88056800
 H    0.42741300   2.85139500  -0.88068600
