 18
  Energy -272.729823482375  Dipole 1.76
 C    0.64177500  -1.92245600  -0.00000000
 O   -0.44823900  -1.03595100   0.00000000
 C   -0.14717100   0.36559900   0.00000000
 C   -1.51142100   1.03290600  -0.00000000
 C    0.62611600   0.75597500   1.25355600
 C    0.62611600   0.75597500  -1.25355600
 H    0.22397200  -2.93006700  -0.00000100
 H    1.27166400  -1.81120500  -0.88970800
 H    1.27166400  -1.81120600   0.88970800
 H   -1.40589900   2.11924700  -0.00000000
 H   -2.07711200   0.73767500  -0.88654100
 H   -2.07711200   0.73767500   0.88654100
 H    0.72964800   1.84195300   1.30146800
 H    0.09422900   0.42035400   2.14702200
 H    1.63044700   0.32810900   1.26231300
 H    0.72964800   1.84195300  -1.30146800
 H    0.09422900   0.42035400  -2.14702200
 H    1.63044600   0.32810900  -1.26231300
