 17
  Energy -251.663436303248  Dipole 0.88
 C    0.33646200   2.07791500   0.00058200
 N    0.46712000   0.64350400   0.00039900
 C   -0.15443900   0.00174900   1.14520700
 C   -0.15457500   0.00204000  -1.14450000
 C   -0.16725700  -1.47844200   0.77218500
 C   -0.16753400  -1.47825200  -0.77181700
 H   -0.72089900   2.40001200   0.00067800
 H    0.81911900   2.49929400  -0.88430400
 H    0.81921100   2.49907500   0.88552200
 H    0.39951100   0.21832000   2.06204500
 H   -1.18851000   0.37018400   1.28442500
 H    0.39933700   0.21875700  -2.06132700
 H   -1.18861500   0.37061000  -1.28357700
 H    0.72396100  -1.97821700   1.15544500
 H   -1.03537600  -1.98894800   1.19117700
 H    0.72341500  -1.97814800  -1.15554100
 H   -1.03593300  -1.98845400  -1.19060100
