 20
  Energy -290.946183038956  Dipole 0.81
 H    0.33568900   2.75434200   0.00007100
 C   -0.66143000   2.27738300  -0.00004000
 N   -0.58445300   0.83552500  -0.00005600
 C    0.07722400   0.35045200   1.19771800
 C    0.07749400   0.35049600  -1.19769900
 C    0.09459600  -1.16602500   1.24663600
 C    0.09487300  -1.16597900  -1.24666800
 C    0.75231800  -1.73716000   0.00004600
 H   -1.19929000   2.62194100  -0.88644200
 H   -1.19947500   2.62191300   0.88626200
 H    1.11803100   0.72918800   1.24676200
 H   -0.44934500   0.75439200   2.06727700
 H    1.11831200   0.72923300  -1.24649100
 H   -0.44888000   0.75446900  -2.06736000
 H    0.61936300  -1.49371400   2.14848700
 H   -0.93627500  -1.52976700   1.31939900
 H    0.61984100  -1.49363400  -2.14841500
 H   -0.93598300  -1.52971700  -1.31967500
 H    1.81636100  -1.46992500   0.00016900
 H    0.69903200  -2.82941100   0.00002000
