 13
  Energy -249.256572104992  Dipole 2.81
 H    1.11582900   2.39262500   0.00016100
 C    0.07464500   2.06046400  -0.00029200
 N   -0.01525300   0.62080900  -0.00006800
 C   -0.01441800  -0.16812100   1.11186800
 C   -0.01446200  -0.16847600  -1.11175100
 C   -0.02168300  -1.48301900   0.70886100
 C   -0.02166700  -1.48324700  -0.70832300
 H   -0.42132600   2.45626300  -0.88610700
 H   -0.42221600   2.45663300   0.88486200
 H   -0.01275400   0.27080400   2.09767900
 H   -0.01283400   0.27013700  -2.09770100
 H   -0.03744200  -2.34371900   1.36018800
 H   -0.03741700  -2.34415400  -1.35937800
