 10
  Energy -284.118388744382  Dipole 4.58
 C   -0.24906700  -1.85414100  -0.00000400
 C    0.69540000  -0.68647500  -0.00000500
 N    0.00457400   0.64387500  -0.00001500
 O   -1.20459700   0.67748400   0.00002200
 O    0.72023700   1.62249800   0.00001600
 H    0.34307600  -2.77126000   0.00000600
 H   -0.88382900  -1.85466300   0.88596400
 H   -0.88381800  -1.85467500  -0.88598000
 H    1.33801600  -0.65482600  -0.88093100
 H    1.33800700  -0.65481600   0.88092700
