 14
  Energy -436.400013397491  Dipole 5.83
 N   -0.00000300   0.00079000   1.69864100
 C    0.00000300   0.00078700   0.23741800
 C    0.00000200   1.21517300  -0.42917600
 C    0.00000300  -1.21360100  -0.42917100
 C    0.00000000   1.20666300  -1.81365100
 C    0.00000000  -1.20509700  -1.81364600
 C   -0.00000100   0.00078200  -2.50347800
 H    0.00000200   2.13909100   0.13225000
 H    0.00000200  -2.13751600   0.13225900
 H   -0.00000200   2.14470600  -2.35518100
 H   -0.00000100  -2.14314100  -2.35517200
 H   -0.00000400   0.00077900  -3.58726700
 O    0.00000100   1.07330800   2.26808600
 O   -0.00000200  -1.07172700   2.26808900
