 7
  Energy -244.839061926165  Dipole 4.35
 H   -0.99877600  -1.67381900  -0.00085800
 C    0.03218800  -1.31952400  -0.00043000
 N   -0.03798900   0.15978900   0.00022600
 O   -0.07888300   0.71960000   1.07374800
 O   -0.07821900   0.72058700  -1.07280600
 H    0.54257500  -1.63390400  -0.90541300
 H    0.54210300  -1.63472900   0.90453400
