 15
  Energy -271.230382623749  Dipole 0.12
 C    0.00060200   0.00027000   1.34565100
 C    0.00086800   1.11585900   0.27366600
 C    0.00022000  -1.11554800   0.27390400
 C    1.23315600   0.66454100  -0.51711000
 C    1.23276800  -0.66511100  -0.51697100
 C   -1.23176500   0.66525400  -0.51698200
 C   -1.23215200  -0.66439700  -0.51683800
 H    0.90030900   0.00007200   1.96438800
 H   -0.89903400   0.00060000   1.96449200
 H    0.00118200   2.14959500   0.61319900
 H   -0.00006300  -2.14921300   0.61365500
 H    1.92046900   1.33244500  -1.01925600
 H    1.91969800  -1.33351800  -1.01897400
 H   -1.91874100   1.33356100  -1.01905500
 H   -1.91951600  -1.33241200  -1.01876900
