 10
  Energy -192.944830371888  Dipole 2.46
 O   -0.00082300   0.00060200   1.06267200
 C   -0.00083100   0.00027900  -1.07344900
 C   -0.00105900   1.03201800   0.05709400
 C   -0.00105900  -1.03111600   0.05740700
 H    0.88867500   0.00018200  -1.70108400
 H   -0.88999100   0.00018400  -1.70157300
 H    0.89044100   1.66234900   0.12600200
 H   -0.89289800   1.66188400   0.12595700
 H    0.89044300  -1.66142300   0.12650800
 H   -0.89289800  -1.66096000   0.12646600
