 7
  Energy -153.664784259204  Dipole 2.36
 O   -0.00000000  -0.00000000   0.84792500
 C   -0.00000000   0.72851600  -0.37410900
 C   -0.00000000  -0.72851600  -0.37410900
 H   -0.92050000   1.26253900  -0.59267700
 H    0.92050000   1.26253900  -0.59267700
 H    0.92050000  -1.26253900  -0.59267700
 H   -0.92050000  -1.26253900  -0.59267700
