 12
  Energy -381.141514517954  Dipole 0.00
 C    0.00001800  -0.00000000   1.42925700
 C    0.00010000   0.00000000  -1.42925700
 C    0.00000000   1.26322900   0.66674300
 C   -0.00000000  -1.26322900   0.66674300
 C    0.00001100   1.26322900  -0.66674300
 C    0.00001100  -1.26322900  -0.66674300
 O    0.00001100   0.00000000   2.64654300
 O   -0.00005000  -0.00000000  -2.64654300
 H   -0.00003200   2.17711400   1.25045700
 H   -0.00003200  -2.17711400   1.25045800
 H   -0.00001900   2.17711400  -1.25045700
 H   -0.00001900  -2.17711400  -1.25045800
