 9
  Energy -171.914176223078  Dipole 5.09
 N   -1.34804500  -1.40983600   0.00000200
 C   -0.75955700  -0.42124800   0.00000100
 C    0.00492800   0.81408500  -0.00000100
 C    1.51012300   0.56217100  -0.00000000
 H   -0.29518600   1.39113000   0.87897200
 H   -0.29518600   1.39112800  -0.87897500
 H    2.03603100   1.51730700   0.00000300
 H    1.81144500   0.00062900   0.88501100
 H    1.81144700   0.00063400  -0.88501500
