 11
  Energy -248.061571019769  Dipole 3.01
 N    0.00000000  -0.00027100   1.41040600
 C    0.00000000   1.13722400   0.71858600
 C    0.00000000  -1.13800200   0.71897700
 C    0.00000000   1.19113000  -0.66757900
 C    0.00000000  -1.19238800  -0.66717100
 C    0.00000000  -0.00075100  -1.37506500
 H   -0.00000000   2.05444200   1.30093100
 H   -0.00000000  -2.05502100   1.30163400
 H   -0.00000000   2.14760200  -1.17611800
 H   -0.00000000  -2.14903300  -1.17538500
 H    0.00000000  -0.00093200  -2.45921600
