 10
  Energy -264.095283125067  Dipole 3.12
 H    0.00000000   0.00075500  -2.39131200
 C   -0.00000000   0.00061000  -1.30458500
 N    0.00000000   1.18839800  -0.71091000
 N   -0.00000000  -1.18734100  -0.71123500
 C   -0.00000000   1.17764200   0.62018700
 C   -0.00000000  -1.17695600   0.61986200
 C   -0.00000000   0.00024300   1.34777400
 H    0.00000000   2.14367500   1.11690500
 H    0.00000000  -2.14312500   1.11631500
 H    0.00000000   0.00010100   2.42999800
