 16
  Energy -234.369074207659  Dipole 1.07
 C    0.30121800  -0.00031500   0.00000000
 C   -1.16321100   0.00015300  -0.00000000
 C   -2.36629200   0.00111700  -0.00000000
 C    0.80420200   1.44685900  -0.00000000
 C    0.80408300  -0.72402300   1.25340100
 C    0.80408300  -0.72402300  -1.25340100
 H   -3.43258100   0.00194500  -0.00000000
 H    1.89712000   1.45398800  -0.00000100
 H    0.45423200   1.98038500  -0.88590000
 H    0.45423300   1.98038500   0.88590100
 H    1.89697200  -0.72766000   1.25843500
 H    0.45479700  -0.22353600   2.15863100
 H    0.45418900  -1.75803900   1.27256800
 H    1.89697200  -0.72766000  -1.25843500
 H    0.45418900  -1.75803900  -1.27256700
 H    0.45479700  -0.22353600  -2.15863100
