 16
  Energy -362.674336468482  Dipole 4.81
 N   -0.14730400  -0.96424300   0.00004600
 C    0.06447300   0.55534600   0.00003700
 C   -1.28226100   1.24347900   0.00003400
 C    0.85816600   0.87362600   1.25774100
 C    0.85813700   0.87354400  -1.25770500
 O   -1.27651500  -1.39849300  -0.00025500
 O    0.84648000  -1.65819300  -0.00008400
 H   -1.10787000   2.32108700   0.00002700
 H   -1.86283700   0.98840200  -0.88655300
 H   -1.86283200   0.98841300   0.88663100
 H    1.03764500   1.94947200   1.28652500
 H    0.30039900   0.59308600   2.15348900
 H    1.81818500   0.35861400   1.25599000
 H    1.03764900   1.94938300  -1.28654300
 H    0.30034000   0.59297800  -2.15342500
 H    1.81814200   0.35850400  -1.25595300
