 14
  Energy -617.772715370677  Dipole 3.08
 Cl  -0.00160600  -0.00016600   1.46402000
 C   -0.00067100  -0.00012700  -0.37221300
 C   -0.00041500   1.44753000  -0.81690600
 C    1.25358900  -0.72415600  -0.81562400
 C   -1.25449900  -0.72411700  -0.81690500
 H    0.00015400   1.48141500  -1.91015500
 H   -0.88825300   1.96855900  -0.45562400
 H    0.88706500   1.96852500  -0.45469600
 H    1.28353000  -0.74094400  -1.90883700
 H    2.14836200  -0.21593200  -0.45324500
 H    1.26034200  -1.75342700  -0.45396700
 H   -1.28330000  -0.74093500  -1.91014800
 H   -1.26167000  -1.75337800  -0.45522900
 H   -2.14962800  -0.21584600  -0.45547300
