 18
  Energy -235.617259062462  Dipole 0.56
 C   -0.12719000  -2.18474500   0.00000100
 C    0.56823700  -1.05441500  -0.00000100
 C    0.03079000   0.35070200  -0.00000000
 C   -1.49078400   0.39522500  -0.00000000
 C    0.56394900   1.06373500   1.24655200
 C    0.56394900   1.06373500  -1.24655200
 H   -1.21183800  -2.19680700   0.00000200
 H    0.37255000  -3.14721300   0.00000000
 H    1.65699100  -1.11355500  -0.00000200
 H   -1.83098300   1.43371800   0.00000000
 H   -1.90337200  -0.09503700  -0.88533800
 H   -1.90337200  -0.09503800   0.88533700
 H    0.24222400   2.10893700   1.25204000
 H    0.19440200   0.58562100   2.15718300
 H    1.65691000   1.04479000   1.27096800
 H    0.24222400   2.10893700  -1.25204100
 H    0.19440400   0.58562100  -2.15718300
 H    1.65691100   1.04479100  -1.27096700
