 15
  Energy -250.466659211310  Dipole 5.20
 N   -0.00000200   0.00094300   2.31839600
 C   -0.00000000   0.00031700   1.16746800
 C    0.00000000   0.00008000  -0.29795500
 C    0.00000000   1.45302200  -0.78141900
 C    1.25825700  -0.72663400  -0.78161900
 C   -1.25825700  -0.72663400  -0.78161900
 H    0.00000100   1.45958900  -1.87345000
 H   -0.88696000   1.98299900  -0.43029200
 H    0.88696100   1.98299900  -0.43029200
 H    1.26277100  -0.72966300  -1.87363100
 H    2.16112800  -0.22382500  -0.43115000
 H    1.27345700  -1.75985200  -0.43083000
 H   -1.26277200  -0.72966200  -1.87363000
 H   -1.27345600  -1.75985200  -0.43083000
 H   -2.16112700  -0.22382500  -0.43114800
