 16
  Energy -271.533336742558  Dipole 1.96
 C   -0.62256300   1.31768300   0.00062200
 H   -1.69288400   1.07743800   0.00117600
 H   -0.54145700   2.40788800   0.00035300
 C    0.02199900   0.72756200   1.24765300
 C    0.02082100   0.72703600  -1.24676800
 C    0.01890300  -0.78692000   1.17109000
 C    0.01779800  -0.78741300  -1.16956200
 O    0.66188900  -1.25501300   0.00056100
 H    1.05745000   1.07526600   1.33257100
 H   -0.50472400   1.04650400   2.15201200
 H    1.05618800   1.07471000  -1.33282300
 H   -0.50676200   1.04559500  -2.15076100
 H    0.55276200  -1.22997200   2.01423400
 H   -1.01807800  -1.15852400   1.19050600
 H    0.55086000  -1.23082000  -2.01302500
 H   -1.01920200  -1.15901900  -1.18784100
