 13
  Energy -232.251621511976  Dipole 2.32
 O   -0.00000000   0.00000000   1.24074700
 C    0.00348300   1.16683200   0.42021800
 C   -0.00348300  -1.16683200   0.42021800
 C   -0.31089200   0.69540500  -0.98870200
 C    0.31089200  -0.69540400  -0.98870200
 H   -0.73192000   1.87426700   0.81194500
 H    0.73192000  -1.87426600   0.81194500
 H    0.99363000   1.63792000   0.46476000
 H   -0.99363000  -1.63792000   0.46476000
 H   -1.39233600   0.62752800  -1.13592700
 H    1.39233600  -0.62752700  -1.13592700
 H    0.09959600   1.35675000  -1.75266800
 H   -0.09959600  -1.35674900  -1.75266800
