 7
  Energy -476.586442215519  Dipole 2.57
 S   -0.00141800  -0.00207100   0.84717800
 C    0.00022600   0.73660700  -0.80371700
 C   -0.00098300  -0.73880100  -0.80458500
 H   -0.91493100   1.24858900  -1.07705800
 H    0.91656700   1.24708400  -1.07590200
 H    0.91452000  -1.25045200  -1.07738400
 H   -0.91697900  -1.24895500  -1.07853200
