 9
  Energy -552.740777722815  Dipole 0.61
 S   -0.00004900   0.00000000   1.17446200
 C    0.00001000   1.23129700  -0.00694300
 C    0.00001000  -1.23129700  -0.00694300
 C   -0.00001000   0.70952500  -1.26799400
 C   -0.00001000  -0.70952500  -1.26799400
 H    0.00002900   2.27011200   0.28779300
 H    0.00002900  -2.27011200   0.28779300
 H   -0.00000400   1.31786800  -2.16308800
 H   -0.00000300  -1.31786800  -2.16308800
