 17
  Energy -448.921765940393  Dipole 0.00
 Si  -0.00017200   0.00006700   0.00012600
 C    1.08287300   1.08292900   1.08309500
 C   -1.08309300  -1.08292900   1.08308700
 C   -1.08317000   1.08309000  -1.08272800
 C    1.08268900  -1.08284400  -1.08297200
 H    1.72579100   1.72588900   0.47515200
 H    1.72581500   0.47490200   1.72595300
 H    0.47496100   1.72582800   1.72610400
 H   -1.72607800  -1.72581000   0.47513000
 H   -0.47511600  -1.72591000   1.72595200
 H   -1.72597000  -0.47498200   1.72608600
 H   -1.72612700   0.47514100  -1.72564700
 H   -0.47523000   1.72602400  -1.72567400
 H   -1.72607800   1.72601500  -0.47473800
 H    0.47466700  -1.72571600  -1.72590500
 H    1.72558800  -0.47485600  -1.72590900
 H    1.72564900  -1.72583900  -0.47510900
