 15
  Energy -271.309438399229  Dipole 0.55
 H    1.05341200   2.77386200   0.00108100
 C    0.02275800   2.40526000   0.00057600
 C   -0.00568500   0.90705200   0.00018500
 C   -0.00789900   0.19138500   1.19567200
 C   -0.00743000   0.19200700  -1.19567900
 C   -0.00509300  -1.19647900   1.19832800
 C   -0.00462300  -1.19585400  -1.19904900
 C   -0.00223900  -1.89645900  -0.00054100
 H   -0.01487300   0.73090300   2.13760300
 H   -0.01403100   0.73203700  -2.13731800
 H   -0.00904600  -1.73311200   2.14075100
 H   -0.00820000  -1.73200800  -2.14174600
 H   -0.00297900  -2.98055500  -0.00083900
 H   -0.46868800   2.81170600  -0.88524800
 H   -0.46938400   2.81125600   0.88622300
