 6
  Energy -997.439584979202  Dipole 0.00
 C   -0.36528900   0.55083300   0.00000000
 C    0.36528900  -0.55083300   0.00000000
 Cl   0.36636200   2.10467100  -0.00000000
 Cl  -0.36636300  -2.10467100  -0.00000000
 H   -1.44718200   0.55861700   0.00000000
 H    1.44718300  -0.55861700   0.00000000
