 10
  Energy -1571.360476629590  Dipole 3.16
 C    1.15691800   0.70021300  -0.05407000
 O    1.17923600   1.89493800  -0.10941100
 C   -0.21803000  -0.03791900   0.00228300
 C    2.37686600  -0.16264600  -0.03775100
 Cl  -1.54834200   1.07325400  -0.24487400
 Cl  -0.24780800  -1.29806600  -1.23911300
 Cl  -0.33557100  -0.76943500   1.61455000
 H    3.16944400   0.36835700   0.48765200
 H    2.20332000  -1.13844800   0.41084300
 H    2.69196600  -0.31424900  -1.07410900
