 8
  Energy -1458.129568831740  Dipole 2.37
 C    0.00000000   0.00070900   0.26233600
 C    0.00000000   0.00057800   1.76750100
 Cl  -0.00000100   1.66785200  -0.35586700
 Cl   1.44354600  -0.83333300  -0.35578600
 Cl  -1.44354600  -0.83333500  -0.35578600
 H   -0.00000100  -1.02814200   2.12786800
 H    0.89087000   0.51483300   2.12786700
 H   -0.89086800   0.51483500   2.12786600
