 6
  Energy -1456.897993649164  Dipole 1.16
 C   -0.00540500   0.43573300  -0.00000000
 C   -1.03556600  -0.40322800  -0.00000000
 Cl  -0.27424900   2.12858800   0.00000000
 Cl   1.62842000  -0.05198300   0.00000000
 Cl  -0.86913300  -2.09876300   0.00000000
 H   -2.05206800  -0.03434800  -0.00000100
